 Gaussian 98, Revision A.7,
 Gaussian 98:  DEC-AXP-OSF/1-G98RevA.7 11-Apr-1999

 ---------------------------------
 #p opt rb3lyp/6-31+g(d,p) pop=nbo
 ---------------------------------

 ------------------
 PM anion struct 2d
 ------------------
 Symbolic Z-matrix:
 Charge =  0 Multiplicity = 1

 SCF Done:  E(RB+HF-LYP) =  -681.798105008     A.U. after   14 cycles
 SCF Done:  E(RB+HF-LYP) =  -681.811072400     A.U. after   13 cycles
 SCF Done:  E(RB+HF-LYP) =  -681.815700830     A.U. after   11 cycles
 SCF Done:  E(RB+HF-LYP) =  -681.816212918     A.U. after   11 cycles
 SCF Done:  E(RB+HF-LYP) =  -681.816769415     A.U. after   12 cycles
 SCF Done:  E(RB+HF-LYP) =  -681.817022958     A.U. after   11 cycles
 SCF Done:  E(RB+HF-LYP) =  -681.817279287     A.U. after   11 cycles
 SCF Done:  E(RB+HF-LYP) =  -681.817490267     A.U. after   12 cycles
 SCF Done:  E(RB+HF-LYP) =  -681.817548899     A.U. after   12 cycles
 SCF Done:  E(RB+HF-LYP) =  -681.817639464     A.U. after   12 cycles
 SCF Done:  E(RB+HF-LYP) =  -681.817727774     A.U. after   11 cycles
 SCF Done:  E(RB+HF-LYP) =  -681.817731605     A.U. after   10 cycles
 SCF Done:  E(RB+HF-LYP) =  -681.817734000     A.U. after    8 cycles
 SCF Done:  E(RB+HF-LYP) =  -681.817734242     A.U. after    9 cycles
 SCF Done:  E(RB+HF-LYP) =  -681.817737309     A.U. after    9 cycles
 SCF Done:  E(RB+HF-LYP) =  -681.817739979     A.U. after    9 cycles
 SCF Done:  E(RB+HF-LYP) =  -681.817741243     A.U. after    8 cycles
 SCF Done:  E(RB+HF-LYP) =  -681.817742676     A.U. after    9 cycles
 SCF Done:  E(RB+HF-LYP) =  -681.817744821     A.U. after    9 cycles
 SCF Done:  E(RB+HF-LYP) =  -681.817745099     A.U. after    7 cycles
 Optimization completed.
    -- Stationary point found.

                         Standard orientation:
 ---------------------------------------------------------------------
 Center     Atomic     Atomic              Coordinates (Angstroms)
 Number     Number      Type              X           Y           Z
 ---------------------------------------------------------------------
    1          6             0        1.749078   -0.777135    0.223862
    2          6             0        1.837883    0.720931   -0.106583
    3          1             0        2.048925    1.311590    0.798315
    4          1             0        2.628404    0.914078   -0.839464
    5          7             0        0.517113    0.999580   -0.661266
    6          1             0        0.293129    1.919179   -1.011948
    7         15             0       -0.679435   -0.056032   -0.132608
    8          8             0        0.396534   -1.010613    0.670698
    9          8             0       -1.562258   -0.671375   -1.154909
   10          7             0       -1.603162    0.679970    1.056627
   11          1             0       -2.555128    0.340774    1.118653
   12          1             0       -1.180610    0.857657    1.959352
   13          1             0        1.943911   -1.388653   -0.664392
   14          1             0        2.419261   -1.077870    1.031082
 ---------------------------------------------------------------------

 Alpha  occ. eigenvalues --  -77.22239 -19.18411 -19.10666 -14.35456 -14.35241
 Alpha  occ. eigenvalues --  -10.26527 -10.24903  -6.66969  -4.83448  -4.83262
 Alpha  occ. eigenvalues --   -4.83128  -1.07107  -0.97078  -0.91314  -0.88586
 Alpha  occ. eigenvalues --   -0.76103  -0.64623  -0.60689  -0.54619  -0.52537
 Alpha  occ. eigenvalues --   -0.51894  -0.47471  -0.45694  -0.42948  -0.42779
 Alpha  occ. eigenvalues --   -0.39041  -0.36085  -0.32923  -0.31367  -0.29760
 Alpha  occ. eigenvalues --   -0.28627  -0.25587
 Alpha virt. eigenvalues --   -0.01555   0.00038   0.01704   0.02254   0.04020
 Alpha virt. eigenvalues --    0.05051   0.05678   0.06535   0.07037   0.07920
 Alpha virt. eigenvalues --    0.08372   0.10496   0.11111   0.11445   0.11734

 Summary of Natural Population Analysis:

                                       Natural Population
               Natural   -----------------------------------------------
    Atom No    Charge        Core      Valence    Rydberg      Total
 -----------------------------------------------------------------------
      C  1   -0.12334      1.99938     4.10496    0.01900     6.12334
      C  2   -0.29059      1.99947     4.27441    0.01671     6.29059
      H  3    0.21953      0.00000     0.77815    0.00232     0.78047
      H  4    0.24538      0.00000     0.75303    0.00159     0.75462
      N  5   -1.07528      1.99956     6.05667    0.01905     8.07528
      H  6    0.44862      0.00000     0.54953    0.00184     0.55138
      P  7    2.43649      9.99862     2.44548    0.11941    12.56351
      O  8   -0.85329      1.99982     6.83295    0.02052     8.85329
      O  9   -1.07774      1.99987     7.05309    0.02478     9.07774
      N 10   -1.27318      1.99967     6.25396    0.01955     8.27318
      H 11    0.44413      0.00000     0.55400    0.00186     0.55587
      H 12    0.43036      0.00000     0.56794    0.00170     0.56964
      H 13    0.23022      0.00000     0.76767    0.00211     0.76978
      H 14    0.23869      0.00000     0.75985    0.00146     0.76131
 =======================================================================
   * Total *  0.00000     21.99639    41.75169    0.25192    64.00000

 Normal termination of Gaussian 98.
